LAMMPS data file via write_data, version 31 Oct 2015, timestep = 2800000

2000 atoms
1 atom types
1999 bonds
1 bond types
1998 angles
1 angle types
1997 dihedrals
1 dihedral types

2.5000000000000000e+00 1.7346847821700001e+03 xlo xhi
3.5000000000000000e+00 1.7356847821700001e+03 ylo yhi
7.5000000000000000e+00 1.7396847821700001e+03 zlo zhi

Masses

1 14.02

Pair Coeffs # lj/cut

1 0.112 4.01

Bond Coeffs # harmonic

1 350 1.53

Angle Coeffs # harmonic

1 60 109.5

Atoms # molecular

569 285 1 8.5543368407806588e+02 8.6317754409820861e+02 8.5451359754053465e+02 0 0 0
240 120 1 8.6192798104822828e+02 8.6775143837427379e+02 8.6069049181717912e+02 0 0 0
443 222 1 8.5216223295729299e+02 8.6378457242425441e+02 8.5956364063453645e+02 0 0 0
567 284 1 8.5668894596164910e+02 8.6535296317005418e+02 8.5513874046520232e+02 0 0 0
229 115 1 8.6165049847928094e+02 8.5622828657572506e+02 8.6586679600829916e+02 0 0 0
1860 930 1 8.6810643549428107e+02 8.6941807225900072e+02 8.6630690263351767e+02 0 0 0
187 94 1 8.6116681063808744e+02 8.5995875978874517e+02 8.6803272453216448e+02 0 0 0
448 224 1 8.4942122719061933e+02 8.6109174785905884e+02 8.6330063672281449e+02 0 0 0
1 1 1 8.5232087152874794e+02 8.6681846923240960e+02 8.5491168567770376e+02 0 0 0
90 45 1 8.6267426859793898e+02 8.5109039963951966e+02 8.7197237970317917e+02 0 0 0
190 95 1 8.6157479375726871e+02 8.6382494592510420e+02 8.6867862815878027e+02 0 0 0
209 105 1 8.6742662154301206e+02 8.5893403451650761e+02 8.6273991032078015e+02 0 0 0
573 287 1 8.5737620293482144e+02 8.6005289620312431e+02 8.5801632060114093e+02 0 0 0
207 104 1 8.6688801198331146e+02 8.6075296950450593e+02 8.6442333771180495e+02 0 0 0
233 117 1 8.6229849486024693e+02 8.6032115156729674e+02 8.6332932134299290e+02 0 0 0
535 268 1 8.6442286628601778e+02 8.6711823941557395e+02 8.6695472248330725e+02 0 0 0
218 109 1 8.6804342382664777e+02 8.5012792634635161e+02 8.6415587207730562e+02 0 0 0
210 105 1 8.6701844933476582e+02 8.5761966292570503e+02 8.6207095015459561e+02 0 0 0
168 84 1 8.5401625109533711e+02 8.6026646188681082e+02 8.6665543427079933e+02 0 0 0
162 81 1 8.4874805990399830e+02 8.5678244177719569e+02 8.6672919087411185e+02 0 0 0
181 91 1 8.5551111221282974e+02 8.5651320398545818e+02 8.6852480619846210e+02 0 0 0
585 293 1 8.6733208249798929e+02 8.5932084729066310e+02 8.5451941365403718e+02 0 0 0
300 150 1 8.5708558058530048e+02 8.6460781749838952e+02 8.6801908336926203e+02 0 0 0
568 284 1 8.5673646378547301e+02 8.6403884879191583e+02 8.5439659161727855e+02 0 0 0
529 265 1 8.6725915008527329e+02 8.6412564787486565e+02 8.7088377924526219e+02 0 0 0
179 90 1 8.5313886190367316e+02 8.5596512705107705e+02 8.6909513867584326e+02 0 0 0
454 227 1 8.5134182020711216e+02 8.6385067867606949e+02 8.6853067691014678e+02 0 0 0
436 218 1 8.6003154030939208e+02 8.6396179089396662e+02 8.5885511363359012e+02 0 0 0
578 289 1 8.6232956038984287e+02 8.5892371652212012e+02 8.5901779915459144e+02 0 0 0
28 14 1 8.6312181026017777e+02 8.5293714177611093e+02 8.6118797893941485e+02 0 0 0
304 152 1 8.5738868201650268e+02 8.6173171859386423e+02 8.7143415950569431e+02 0 0 0
565 283 1 8.5781824878580653e+02 8.6746502441030646e+02 8.5552226564095986e+02 0 0 0
490 245 1 8.4689278586843875e+02 8.6678757046788758e+02 8.6149035708244901e+02 0 0 0
498 249 1 8.4925771628762743e+02 8.6744033848649144e+02 8.6975181858007204e+02 0 0 0
449 225 1 8.4988673153096249e+02 8.6204575424524990e+02 8.6435976221666795e+02 0 0 0
228 114 1 8.6163117100310910e+02 8.5472554177269149e+02 8.6602394319393522e+02 0 0 0
527 264 1 8.6629886562405341e+02 8.6560862228247026e+02 8.7276280556157872e+02 0 0 0
428 214 1 8.6727980079404301e+02 8.6395286907650643e+02 8.5369128424227210e+02 0 0 0
175 88 1 8.5374504887009778e+02 8.5661455961071908e+02 8.7249362023011872e+02 0 0 0
123 62 1 8.6840492884963419e+02 8.4889866264563807e+02 8.7314091194505045e+02 0 0 0
34 17 1 8.6589880798890260e+02 8.5525919791883746e+02 8.6682599574212952e+02 0 0 0
239 120 1 8.6236720523967858e+02 8.6709165245612428e+02 8.6201110866678505e+02 0 0 0
170 85 1 8.5434713280535027e+02 8.6063806309886422e+02 8.6910625432042229e+02 0 0 0
429 215 1 8.6611621332978257e+02 8.6296152304607608e+02 8.5379974727830722e+02 0 0 0
142 71 1 8.5806601679396897e+02 8.5264832810284054e+02 8.7154692877108914e+02 0 0 0
27 14 1 8.6193679403495742e+02 8.5372912131242674e+02 8.6054094107171227e+02 0 0 0
531 266 1 8.6725077605563104e+02 8.6457445411137633e+02 8.6839738757531063e+02 0 0 0
237 119 1 8.6232391703265887e+02 8.6488088553126443e+02 8.6328891808280673e+02 0 0 0
451 226 1 8.4896676654323130e+02 8.6319079119743299e+02 8.6651654589480597e+02 0 0 0
439 220 1 8.5698107265621957e+02 8.6455822601691170e+02 8.5947904924839781e+02 0 0 0
347 174 1 8.5408087040334306e+02 8.6686424829507052e+02 8.7321390836184412e+02 0 0 0
444 222 1 8.5072299967390097e+02 8.6430291588566763e+02 8.5986656928795742e+02 0 0 0
17 9 1 8.5450803303871010e+02 8.6211663909123865e+02 8.6291178450534403e+02 0 0 0
491 246 1 8.4832391815104154e+02 8.6634842421539577e+02 8.6178211531480190e+02 0 0 0
294 147 1 8.5745845723549337e+02 8.6876978540759512e+02 8.6329483057957668e+02 0 0 0
440 220 1 8.5568426923484958e+02 8.6535685016665366e+02 8.5947417554961396e+02 0 0 0
219 110 1 8.6695031362652867e+02 8.4907066694466380e+02 8.6386824763511299e+02 0 0 0
408 204 1 8.6494277776778449e+02 8.6646512505813234e+02 8.5764670904066224e+02 0 0 0
572 286 1 8.5641688502042086e+02 8.6124367886307027e+02 8.5772306699614558e+02 0 0 0
176 88 1 8.5231167838898375e+02 8.5639094532528156e+02 8.7205913228760210e+02 0 0 0
221 111 1 8.6470650949831111e+02 8.4824279163604797e+02 8.6455872959884493e+02 0 0 0
18 9 1 8.5549035482718421e+02 8.6090593775063348e+02 8.6302571212645046e+02 0 0 0
165 83 1 8.5179872095645283e+02 8.5796922090891155e+02 8.6461052606216288e+02 0 0 0
174 87 1 8.5398586684308134e+02 8.5797826649394608e+02 8.7315160348828476e+02 0 0 0
189 95 1 8.6176301020568826e+02 8.6245265320053386e+02 8.6801506620983275e+02 0 0 0
167 84 1 8.5355292444947577e+02 8.5929011144638639e+02 8.6559706101571896e+02 0 0 0
231 116 1 8.6205299916914601e+02 8.5811693836698271e+02 8.6459411763892740e+02 0 0 0
193 97 1 8.6244686997986412e+02 8.6516184132698356e+02 8.7210231479987795e+02 0 0 0
456 228 1 8.5302255520747326e+02 8.6543486927150661e+02 8.6962239039523888e+02 0 0 0
216 108 1 8.6825880209694708e+02 8.5094906862017979e+02 8.6177055249331829e+02 0 0 0
1245 623 1 8.6341245857116473e+02 8.6878603189712510e+02 8.7210474800078532e+02 0 0 0
483 242 1 8.4465516583629665e+02 8.6855947117819949e+02 8.6836772747057455e+02 0 0 0
141 71 1 8.5875695504661462e+02 8.5350526683916064e+02 8.7043520450149890e+02 0 0 0
432 216 1 8.6304036879323428e+02 8.6246936479243811e+02 8.5615103158040051e+02 0 0 0
138 69 1 8.6179039957072382e+02 8.5583801819971438e+02 8.7040879903224527e+02 0 0 0
485 243 1 8.4484196831793622e+02 8.6744157610031232e+02 8.6610498414964877e+02 0 0 0
487 244 1 8.4499079710047579e+02 8.6636389375531803e+02 8.6373690958339841e+02 0 0 0
166 83 1 8.5202641324558181e+02 8.5923218382170000e+02 8.6537217434550053e+02 0 0 0
213 107 1 8.6800478260036925e+02 8.5470138414531220e+02 8.6153582016774158e+02 0 0 0
455 228 1 8.5174928824616381e+02 8.6463396203994682e+02 8.6973861472491944e+02 0 0 0
496 248 1 8.4907268991356864e+02 8.6708907467091649e+02 8.6724465461207160e+02 0 0 0
409 205 1 8.6439481575688353e+02 8.6551960424676065e+02 8.5864431061407277e+02 0 0 0
137 69 1 8.6290348183042715e+02 8.5483615555349445e+02 8.7043183588364354e+02 0 0 0
91 46 1 8.6199607656571948e+02 8.5026410397492259e+02 8.7088432591949584e+02 0 0 0
186 93 1 8.5995660165488732e+02 8.5912604073968873e+02 8.6848810510924591e+02 0 0 0
580 290 1 8.6462536052057828e+02 8.5866361617006078e+02 8.5851607041593422e+02 0 0 0
452 226 1 8.4967323906281956e+02 8.6226305156459625e+02 8.6743975673159900e+02 0 0 0
35 18 1 8.6679964235552654e+02 8.5643783814862923e+02 8.6724339950786532e+02 0 0 0
343 172 1 8.5051098506230005e+02 8.6889973081429093e+02 8.7347367083630650e+02 0 0 0
203 102 1 8.6563146547714689e+02 8.5977339666349042e+02 8.6906001094369435e+02 0 0 0
201 101 1 8.6548488822300976e+02 8.5954617296512663e+02 8.7149317971183029e+02 0 0 0
566 283 1 8.5798021234935584e+02 8.6610582352319909e+02 8.5486688545134405e+02 0 0 0
15 8 1 8.5377428583129768e+02 8.6425869977554578e+02 8.6388893993024885e+02 0 0 0
26 13 1 8.6071321982837685e+02 8.5381033878967492e+02 8.6152827053073747e+02 0 0 0
486 243 1 8.4486733474533116e+02 8.6619284048062491e+02 8.6524624883961212e+02 0 0 0
227 114 1 8.6045613055312162e+02 8.5407784528013030e+02 8.6533946481418695e+02 0 0 0
412 206 1 8.6607480937637479e+02 8.6260033021358822e+02 8.6059465955496421e+02 0 0 0
220 110 1 8.6594362315835440e+02 8.4906080468920788e+02 8.6496605162462333e+02 0 0 0
232 116 1 8.6171965680278936e+02 8.5886514540149528e+02 8.6334206064155228e+02 0 0 0
22 11 1 8.5706283428586585e+02 8.5691711008200650e+02 8.6296626994254200e+02 0 0 0
163 82 1 8.5017400822977936e+02 8.5726916747725215e+02 8.6649224430422260e+02 0 0 0
460 230 1 8.5283078835467586e+02 8.6926552520911150e+02 8.6784635962249786e+02 0 0 0
406 203 1 8.6435994484043431e+02 8.6820290430965679e+02 8.5607824659653772e+02 0 0 0
302 151 1 8.5704040583905612e+02 8.6395378692919303e+02 8.7038744318198064e+02 0 0 0
410 205 1 8.6546202544891594e+02 8.6458707871176603e+02 8.5929540151027095e+02 0 0 0
12 6 1 8.5343756725079379e+02 8.6709452867679806e+02 8.6350329155728923e+02 0 0 0
411 206 1 8.6489244679399712e+02 8.6339699870839775e+02 8.6005475656178896e+02 0 0 0
571 286 1 8.5637072408684276e+02 8.6168241872143835e+02 8.5621334875415891e+02 0 0 0
293 147 1 8.5752595210990216e+02 8.6853470302779681e+02 8.6182026387345172e+02 0 0 0
224 112 1 8.6177101710344550e+02 8.5035003814274012e+02 8.6583497079247513e+02 0 0 0
25 13 1 8.5959130734450503e+02 8.5479049510903656e+02 8.6099635212224769e+02 0 0 0
575 288 1 8.5967396155379390e+02 8.5950139455152532e+02 8.5786670096413752e+02 0 0 0
158 79 1 8.4854328611909921e+02 8.5986406780996515e+02 8.7042509632872202e+02 0 0 0
295 148 1 8.5721871456449003e+02 8.6740073637427668e+02 8.6386097925422962e+02 0 0 0
160 80 1 8.4857009856653258e+02 8.5828993982915961e+02 8.6863965496626713e+02 0 0 0
226 113 1 8.6035218066332436e+02 8.5265987410203013e+02 8.6600178380210525e+02 0 0 0
222 111 1 8.6344801050745752e+02 8.4845326313037401e+02 8.6529485167998359e+02 0 0 0
135 68 1 8.6535018418602613e+02 8.5428125594556377e+02 8.7108723829052997e+02 0 0 0
346 173 1 8.5318206572267354e+02 8.6804939989906336e+02 8.7337391895261453e+02 0 0 0
134 67 1 8.6643794710616191e+02 8.5488029234361068e+02 8.7197976680385466e+02 0 0 0
576 288 1 8.5997177248213222e+02 8.5921362243127271e+02 8.5932289389354821e+02 0 0 0
236 118 1 8.6177840962806499e+02 8.6344391350898547e+02 8.6299946959554268e+02 0 0 0
458 229 1 8.5412122862566616e+02 8.6745129241786606e+02 8.6884003943412552e+02 0 0 0
306 153 1 8.5818660026272300e+02 8.5941317592208020e+02 8.7207024982845815e+02 0 0 0
177 89 1 8.5247663683843632e+02 8.5508733866564046e+02 8.7130733908667230e+02 0 0 0
427 214 1 8.6777856219921784e+02 8.6436728897702449e+02 8.5509362333466811e+02 0 0 0
194 97 1 8.6170834819953791e+02 8.6425857076982754e+02 8.7308293179357383e+02 0 0 0
501 251 1 8.4762228990111578e+02 8.6490269866415258e+02 8.7220402084448813e+02 0 0 0
570 285 1 8.5527182045490963e+02 8.6264247671042460e+02 8.5589609069068479e+02 0 0 0
234 117 1 8.6140246489034871e+02 8.6121967783280593e+02 8.6419464250204123e+02 0 0 0
93 47 1 8.6382439714791008e+02 8.5062026276098732e+02 8.6918884388423260e+02 0 0 0
497 249 1 8.4890466560861228e+02 8.6809853120387720e+02 8.6843547326654834e+02 0 0 0
430 215 1 8.6500293905967192e+02 8.6338449937188898e+02 8.5477853324886598e+02 0 0 0
539 270 1 8.6027516785570629e+02 8.6790334605565749e+02 8.6800690705956390e+02 0 0 0
532 266 1 8.6642890171176941e+02 8.6533761362293114e+02 8.6743966229132991e+02 0 0 0
184 92 1 8.5753621894583932e+02 8.5865334904999702e+02 8.6801193243144382e+02 0 0 0
372 186 1 8.5841249858445087e+02 8.6900076851292806e+02 8.7317478710406692e+02 0 0 0
19 10 1 8.5576251814522357e+02 8.6020007394800382e+02 8.6174983968283004e+02 0 0 0
202 101 1 8.6474276124344033e+02 8.6007429525957662e+02 8.7028970604908386e+02 0 0 0
530 265 1 8.6659050499168461e+02 8.6485987452244365e+02 8.6972609642290297e+02 0 0 0
777 389 1 8.6664993082907756e+02 8.6912133851300268e+02 8.5991678442985381e+02 0 0 0
133 67 1 8.6570507888605130e+02 8.5519227382373572e+02 8.7334342976360290e+02 0 0 0
445 223 1 8.4974130556556236e+02 8.6312199339202732e+02 8.6011838175560911e+02 0 0 0
143 72 1 8.5765097705015717e+02 8.5367799077350764e+02 8.7257469596845431e+02 0 0 0
188 94 1 8.6072770177679092e+02 8.6139010406843818e+02 8.6832528084404998e+02 0 0 0
157 79 1 8.4825468846196713e+02 8.6021590049591168e+02 8.7191793591644057e+02 0 0 0
407 204 1 8.6379208519048950e+02 8.6712811063643755e+02 8.5696602687655843e+02 0 0 0
21 11 1 8.5589721512615165e+02 8.5789508220219795e+02 8.6259627201522005e+02 0 0 0
579 290 1 8.6340529218914173e+02 8.5788438836023431e+02 8.5890190510157345e+02 0 0 0
307 154 1 8.5941207623909463e+02 8.5858376773519331e+02 8.7243891885241146e+02 0 0 0
581 291 1 8.6586033384825078e+02 8.5775819376711729e+02 8.5822863312545007e+02 0 0 0
185 93 1 8.5869862546742684e+02 8.5962805362120264e+02 8.6772595829747058e+02 0 0 0
29 15 1 8.6370147373082955e+02 8.5385350390567123e+02 8.6224629639780630e+02 0 0 0
488 244 1 8.4575000113605120e+02 8.6521756259915412e+02 8.6304820382878609e+02 0 0 0
32 16 1 8.6578840121728683e+02 8.5325226147978094e+02 8.6544829261661573e+02 0 0 0
536 268 1 8.6349607823248016e+02 8.6788025535903819e+02 8.6601281087478276e+02 0 0 0
164 82 1 8.5035534511275591e+02 8.5763875557899553e+02 8.6499448288530118e+02 0 0 0
199 100 1 8.6346984912037567e+02 8.5930304409895632e+02 8.7297034471414861e+02 0 0 0
24 12 1 8.5847096884872713e+02 8.5510910597537315e+02 8.6205010580255544e+02 0 0 0
31 16 1 8.6520578980460789e+02 8.5410345133560622e+02 8.6426641735245653e+02 0 0 0
238 119 1 8.6194029234575260e+02 8.6566945347425144e+02 8.6198728782901219e+02 0 0 0
183 92 1 8.5773622146394484e+02 8.5720411151967767e+02 8.6759888250652682e+02 0 0 0
235 118 1 8.6196750391947887e+02 8.6262328972241642e+02 8.6424391787800812e+02 0 0 0
450 225 1 8.4860864606187204e+02 8.6248022023748206e+02 8.6520986566941826e+02 0 0 0
30 15 1 8.6475183543184323e+02 8.5312054038619010e+02 8.6312593365586224e+02 0 0 0
298 149 1 8.5788384176076011e+02 8.6560179586186518e+02 8.6578866216503059e+02 0 0 0
534 267 1 8.6402649550722015e+02 8.6567165942165377e+02 8.6677706967675397e+02 0 0 0
23 12 1 8.5765904501576313e+02 8.5631215710892775e+02 8.6165251226200928e+02 0 0 0
583 292 1 8.6579983850341205e+02 8.5757828523042167e+02 8.5565917585874195e+02 0 0 0
230 115 1 8.6174632491545992e+02 8.5661092919781220e+02 8.6443368981139656e+02 0 0 0
574 287 1 8.5874023407626714e+02 8.6059244678708910e+02 8.5773322329414702e+02 0 0 0
495 248 1 8.4883401775585378e+02 8.6794148002086570e+02 8.6602285471159507e+02 0 0 0
564 282 1 8.5922745399057214e+02 8.6810410402398645e+02 8.5565969343512472e+02 0 0 0
16 8 1 8.5453868679937500e+02 8.6293863416382851e+02 8.6418384441259195e+02 0 0 0
433 217 1 8.6189834293504305e+02 8.6340434596678233e+02 8.5561074838852187e+02 0 0 0
3 2 1 8.5311707501224726e+02 8.6870287786001040e+02 8.5630692343922794e+02 0 0 0
95 48 1 8.6620954692056750e+02 8.4988934300614949e+02 8.6984918820403539e+02 0 0 0
446 223 1 8.4995577028679702e+02 8.6265497884687545e+02 8.6150224402364540e+02 0 0 0
457 229 1 8.5287696443159962e+02 8.6654078180648207e+02 8.6859492788658929e+02 0 0 0
482 241 1 8.4442522532903206e+02 8.6834554125617672e+02 8.6986399857227445e+02 0 0 0
140 70 1 8.6004544970192080e+02 8.5414665686079184e+02 8.7092440971434178e+02 0 0 0
171 86 1 8.5366783775429508e+02 8.6059306484251522e+02 8.7043692408128095e+02 0 0 0
434 217 1 8.6068171741945184e+02 8.6358770711552518e+02 8.5654036366824744e+02 0 0 0
431 216 1 8.6406806878769294e+02 8.6224600785036671e+02 8.5501139428803242e+02 0 0 0
20 10 1 8.5667561599205931e+02 8.5903036745189877e+02 8.6207601889955140e+02 0 0 0
205 103 1 8.6588233389472998e+02 8.5996891709173178e+02 8.6660498607019463e+02 0 0 0
442 221 1 8.5319928418390884e+02 8.6489557937442009e+02 8.5973047244920565e+02 0 0 0
438 219 1 8.5816418749899833e+02 8.6556650178285736e+02 8.5942751646320801e+02 0 0 0
36 18 1 8.6782503790155783e+02 8.5609199389724654e+02 8.6832575943204324e+02 0 0 0
299 150 1 8.5792101599010550e+02 8.6439205433148561e+02 8.6670547865778485e+02 0 0 0
774 387 1 8.6685490999968613e+02 8.6665463893791832e+02 8.6289863398647674e+02 0 0 0
537 269 1 8.6201594731856460e+02 8.6762557654003012e+02 8.6633413356459619e+02 0 0 0
191 96 1 8.6202012191529195e+02 8.6372827017511008e+02 8.7010374701751573e+02 0 0 0
1248 624 1 8.6632931835995578e+02 8.6945883004501354e+02 8.6984778554668253e+02 0 0 0
582 291 1 8.6575529560729433e+02 8.5684349830693975e+02 8.5701542831754841e+02 0 0 0
773 387 1 8.6832104990547998e+02 8.6631443013604121e+02 8.6275435073230176e+02 0 0 0
10 5 1 8.5346342936644783e+02 8.6920116226135826e+02 8.6213481426019052e+02 0 0 0
296 148 1 8.5836731564757156e+02 8.6647205801907990e+02 8.6348656321349449e+02 0 0 0
13 7 1 8.5276584495975612e+02 8.6641723816435558e+02 8.6476664014422511e+02 0 0 0
500 250 1 8.4857179768805440e+02 8.6606367454443796e+02 8.7171674417091174e+02 0 0 0
494 247 1 8.4893681876703101e+02 8.6723080177943018e+02 8.6472814064953673e+02 0 0 0
584 292 1 8.6714915453397623e+02 8.5833795374368287e+02 8.5565048576047639e+02 0 0 0
303 152 1 8.5768578366306474e+02 8.6319992961629828e+02 8.7153432024460130e+02 0 0 0
435 218 1 8.6122062639646128e+02 8.6393400167768527e+02 8.5793046752836381e+02 0 0 0
437 219 1 8.5923171061998823e+02 8.6516737090767936e+02 8.5837891716011336e+02 0 0 0
204 102 1 8.6491418662093270e+02 8.6019820254174840e+02 8.6776398331693315e+02 0 0 0
441 221 1 8.5458579852485911e+02 8.6427508979303730e+02 8.5941825328579364e+02 0 0 0
223 112 1 8.6320638901753330e+02 8.4999233086912500e+02 8.6534796701990467e+02 0 0 0
33 17 1 8.6671815862384835e+02 8.5410865885033002e+02 8.6624856132291768e+02 0 0 0
94 47 1 8.6515142512598447e+02 8.4993379822542749e+02 8.6874716788908552e+02 0 0 0
533 267 1 8.6499175243785589e+02 8.6477289923146179e+02 8.6750020252537354e+02 0 0 0
180 90 1 8.5420913393385069e+02 8.5595380056084241e+02 8.6796815837013139e+02 0 0 0
172 86 1 8.5415369474042689e+02 8.5926220835182835e+02 8.7102666116434978e+02 0 0 0
200 100 1 8.6486618658837710e+02 8.5994333759960580e+02 8.7280882563459136e+02 0 0 0
169 85 1 8.5341865487506755e+02 8.5995509463140183e+02 8.6804333270321195e+02 0 0 0
178 89 1 8.5361620520757197e+02 8.5528501564192561e+02 8.7035990279107330e+02 0 0 0
1246 623 1 8.6482265406632689e+02 8.6870512438972321e+02 8.7156102952838467e+02 0 0 0
297 149 1 8.5830418653910476e+02 8.6522192435007105e+02 8.6432357853566441e+02 0 0 0
2 1 1 8.5279502096673218e+02 8.6722228435473914e+02 8.5635828484141439e+02 0 0 0
447 224 1 8.4881314222509945e+02 8.6182054152763521e+02 8.6212473384238342e+02 0 0 0
453 227 1 8.5013512529749732e+02 8.6290244624689774e+02 8.6877058919627461e+02 0 0 0
212 106 1 8.6774335788285794e+02 8.5574155405548413e+02 8.6044070545203328e+02 0 0 0
577 289 1 8.6108293253859301e+02 8.5818449422327421e+02 8.5938797942840426e+02 0 0 0
182 91 1 8.5632657125075048e+02 8.5662054416270780e+02 8.6731048924564118e+02 0 0 0
225 113 1 8.6169594244894336e+02 8.5184048940694515e+02 8.6558851762082372e+02 0 0 0
241 121 1 8.6231253258662866e+02 8.6920421433825516e+02 8.6056886982205663e+02 0 0 0
14 7 1 8.5364478613613142e+02 8.6516131529958079e+02 8.6509484347217142e+02 0 0 0
775 388 1 8.6659741967162381e+02 8.6801212477457409e+02 8.6217287914266558e+02 0 0 0
413 207 1 8.6686410419911033e+02 8.6203160822407722e+02 8.5945234162034217e+02 0 0 0
305 153 1 8.5850856723628294e+02 8.6093203177110058e+02 8.7210222357110081e+02 0 0 0
492 246 1 8.4921156272357928e+02 8.6758951182217834e+02 8.6219233807689602e+02 0 0 0
139 70 1 8.6045001208853728e+02 8.5519975662622994e+02 8.6985407814895234e+02 0 0 0
173 87 1 8.5339685717881866e+02 8.5915262153955030e+02 8.7234057120301338e+02 0 0 0
528 264 1 8.6639563377806110e+02 8.6416532319933697e+02 8.7218763285596833e+02 0 0 0
538 269 1 8.6174770621515518e+02 8.6813622717254100e+02 8.6773569069445102e+02 0 0 0
11 6 1 8.5290796591016840e+02 8.6853307309793615e+02 8.6340414279213849e+02 0 0 0
459 230 1 8.5417974527193553e+02 8.6846478086810328e+02 8.6776623315136976e+02 0 0 0
776 388 1 8.6707738153004186e+02 8.6787029614268465e+02 8.6072540314752598e+02 0 0 0
136 68 1 8.6431334475597032e+02 8.5539812618869121e+02 8.7099387647270532e+02 0 0 0
161 81 1 8.4842121299337168e+02 8.5684693913899412e+02 8.6820858855002712e+02 0 0 0
159 80 1 8.4831630361518842e+02 8.5837772766548392e+02 8.7017864118382499e+02 0 0 0
499 250 1 8.4827685981894774e+02 8.6637553311150430e+02 8.7022894488028885e+02 0 0 0
484 242 1 8.4454641066517070e+02 8.6719869483537400e+02 8.6760305663056238e+02 0 0 0
215 108 1 8.6835307650219204e+02 8.5242092757952173e+02 8.6218431863024045e+02 0 0 0
301 151 1 8.5770563806770213e+02 8.6368382443657856e+02 8.6908849690958391e+02 0 0 0
97 49 1 8.6792878760670499e+02 8.5114807089405372e+02 8.6839167584222400e+02 0 0 0
192 96 1 8.6171726549462471e+02 8.6502240059095720e+02 8.7074470053006064e+02 0 0 0
405 203 1 8.6327002896481349e+02 8.6927162044754402e+02 8.5588842703342141e+02 0 0 0
206 103 1 8.6582057980720708e+02 8.6106810077451905e+02 8.6551078149463842e+02 0 0 0
92 46 1 8.6308945488409540e+02 8.4957878441039884e+02 8.7005724966151422e+02 0 0 0
89 45 1 8.6178660195474606e+02 8.5132354714283656e+02 8.7318658465262558e+02 0 0 0
489 245 1 8.4600542448215378e+02 8.6554940507953950e+02 8.6158036591975963e+02 0 0 0
540 270 1 8.5995457935126296e+02 8.6847419026304169e+02 8.6933806930839421e+02 0 0 0
493 247 1 8.4877624712559953e+02 8.6820955645915069e+02 8.6354702774775365e+02 0 0 0
208 104 1 8.6650512022234932e+02 8.5939435163047369e+02 8.6382525548654689e+02 0 0 0
586 293 1 8.6858213258121373e+02 8.6020411359980608e+02 8.5464637063036025e+02 0 0 0
211 106 1 8.6807140659960862e+02 8.5711775289434433e+02 8.6100357437632772e+02 0 0 0
345 173 1 8.5245388736018867e+02 8.6841650129557672e+02 8.7212081652314157e+02 0 0 0
414 207 1 8.6812661266557052e+02 8.6128407613832576e+02 8.5989812997991498e+02 0 0 0
4 2 1 8.5405076793313071e+02 8.6904602079324968e+02 8.5746888424529141e+02 0 0 0
96 48 1 8.6752929040160609e+02 8.4979113826967910e+02 8.6908678250663331e+02 0 0 0
156 78 1 8.4940644953806247e+02 8.5976782214640787e+02 8.7284187669970288e+02 0 0 0
214 107 1 8.6792196063769416e+02 8.5331223616813350e+02 8.6098142057407199e+02 0 0 0
778 389 1 8.6765901100870042e+02 8.6940210616616571e+02 8.5882881237326887e+02 0 0 0
772 386 1 8.6846332685083974e+02 8.6490000897783057e+02 8.6331271190945552e+02 0 0 0
344 172 1 8.5146489089751981e+02 8.6951587692053647e+02 8.7248335324599248e+02 0 0 0
308 154 1 8.5906979956363148e+02 8.5762323871484364e+02 8.7357210082879794e+02 0 0 0
503 252 1 8.4959139911370323e+02 8.6424278283361048e+02 8.7356658594083251e+02 0 0 0
742 371 1 8.6320716917103641e+02 8.5537155416586620e+02 8.8705633217229115e+02 0 0 0
740 370 1 8.6441784527402626e+02 8.5696983259128490e+02 8.8848805770985973e+02 0 0 0
512 256 1 8.5722650683444078e+02 8.5967481488813462e+02 8.7767473105371494e+02 0 0 0
749 375 1 8.6634548278880504e+02 8.5156557734602393e+02 8.8280011248962535e+02 0 0 0
369 185 1 8.6023402887887971e+02 8.6798165850718681e+02 8.7627614736978080e+02 0 0 0
329 165 1 8.5315145161176713e+02 8.6453561622298400e+02 8.7867241074229059e+02 0 0 0
314 157 1 8.6167168699359877e+02 8.5436046425190955e+02 8.7893232305443723e+02 0 0 0
950 475 1 8.6770430627889584e+02 8.6704350484103225e+02 8.8486782691297924e+02 0 0 0
349 175 1 8.5563438842005269e+02 8.6532875983164843e+02 8.7460737974011784e+02 0 0 0
511 256 1 8.5664355218811477e+02 8.5962650820313013e+02 8.7624512550775978e+02 0 0 0
734 367 1 8.6703132554496756e+02 8.5803263056580749e+02 8.9541090683600078e+02 0 0 0
901 451 1 8.6837579024649642e+02 8.6423581553072665e+02 8.9448132296287940e+02 0 0 0
1690 845 1 8.5826213103728378e+02 8.6741008104835566e+02 8.8046324087908715e+02 0 0 0
737 369 1 8.6483108199799517e+02 8.5813163307738057e+02 8.9224624608940007e+02 0 0 0
128 64 1 8.6625182955115076e+02 8.5318664771181318e+02 8.7760662185737181e+02 0 0 0
884 442 1 8.6230457653247436e+02 8.6701277863293535e+02 8.9228511088481969e+02 0 0 0
152 76 1 8.5109853630005114e+02 8.5780927501440146e+02 8.7708828164609668e+02 0 0 0
1833 917 1 8.5995441241825222e+02 8.6018127332914958e+02 8.8496423503073390e+02 0 0 0
81 41 1 8.6841637993452957e+02 8.4645318220824322e+02 8.7709402896902282e+02 0 0 0
751 376 1 8.6855188007770209e+02 8.5135598986592925e+02 8.8155370364591693e+02 0 0 0
1836 918 1 8.6141974547582902e+02 8.5804989195879762e+02 8.8218447304817516e+02 0 0 0
1828 914 1 8.6173574234770786e+02 8.6089197608658185e+02 8.8951664138887941e+02 0 0 0
312 156 1 8.6117795924392135e+02 8.5419259243599060e+02 8.7645023739824376e+02 0 0 0
1838 919 1 8.6355669523438166e+02 8.5699417632438633e+02 8.8147817158272846e+02 0 0 0
745 373 1 8.6289519023635853e+02 8.5300909495322367e+02 8.8523171061464575e+02 0 0 0
352 176 1 8.5823407787137182e+02 8.6420688925519676e+02 8.7711407597953598e+02 0 0 0
370 185 1 8.5990582000365146e+02 8.6879657753817457e+02 8.7500324451865947e+02 0 0 0
322 161 1 8.5527033756214757e+02 8.5879928647629777e+02 8.8282795073245904e+02 0 0 0
878 439 1 8.5841135219307080e+02 8.6467886253557253e+02 8.8780902823858412e+02 0 0 0
315 158 1 8.6025124211015850e+02 8.5446603244697383e+02 8.7953523702004259e+02 0 0 0
130 65 1 8.6544782916044676e+02 8.5523098243596371e+02 8.7636056700165693e+02 0 0 0
326 163 1 8.5568027469090509e+02 8.6288793239735344e+02 8.8132327127367466e+02 0 0 0
84 42 1 8.6479088086384161e+02 8.4719190216116556e+02 8.7676838961548629e+02 0 0 0
1835 918 1 8.6037483780240871e+02 8.5842910921175587e+02 8.8326532655864457e+02 0 0 0
741 371 1 8.6313250654619355e+02 8.5610345682357638e+02 8.8834611094895831e+02 0 0 0
321 161 1 8.5560788986466503e+02 8.5736652941701880e+02 8.8310008125767456e+02 0 0 0
521 261 1 8.6424324678671280e+02 8.6396818184447568e+02 8.7883022133953443e+02 0 0 0
151 76 1 8.5102149637829427e+02 8.5646662492086830e+02 8.7784162069692150e+02 0 0 0
520 260 1 8.6463261063494917e+02 8.6273003324674164e+02 8.7798613219122421e+02 0 0 0
313 157 1 8.6169755662545754e+02 8.5510029289524914e+02 8.7757581570533296e+02 0 0 0
318 159 1 8.5865388205395573e+02 8.5537177194854758e+02 8.8169640857209424e+02 0 0 0
1831 916 1 8.5880098693947798e+02 8.5964218990567235e+02 8.8719730517267317e+02 0 0 0
147 74 1 8.5564063472300506e+02 8.5501885526637579e+02 8.7672649229140109e+02 0 0 0
525 263 1 8.6590826177279905e+02 8.6680788532580925e+02 8.7500153324315102e+02 0 0 0
1834 917 1 8.6098451181529640e+02 8.5959164604186435e+02 8.8405286880006554e+02 0 0 0
514 257 1 8.5944887402548659e+02 8.5948479635530759e+02 8.7889075024708495e+02 0 0 0
1820 910 1 8.6276674085530192e+02 8.6870550390326241e+02 8.8643903573542286e+02 0 0 0
522 261 1 8.6525321875398186e+02 8.6506758568432679e+02 8.7853576441969869e+02 0 0 0
871 436 1 8.5374316966183210e+02 8.6861534464728527e+02 8.8506279356405537e+02 0 0 0
513 257 1 8.5875263629105666e+02 8.5946848215568002e+02 8.7755911693405346e+02 0 0 0
1096 548 1 8.6628555261647182e+02 8.6873759078717251e+02 8.9012335765172656e+02 0 0 0
1825 913 1 8.6443401106413239e+02 8.6294463287705071e+02 8.8775150977759324e+02 0 0 0
85 43 1 8.6466086214696645e+02 8.4834852976142759e+02 8.7576915333013756e+02 0 0 0
735 368 1 8.6583448572308293e+02 8.5840765581247092e+02 8.9452838961880400e+02 0 0 0
940 470 1 8.6620483570969941e+02 8.5838294999774712e+02 8.8563148556052920e+02 0 0 0
1095 548 1 8.6693757761998506e+02 8.6790802782795311e+02 8.8900612440479426e+02 0 0 0
127 64 1 8.6607023703409482e+02 8.5205032000157564e+02 8.7651484318986377e+02 0 0 0
126 63 1 8.6740009894950038e+02 8.5173910851782216e+02 8.7571180751562906e+02 0 0 0
1689 845 1 8.5898936900170565e+02 8.6853185942877110e+02 8.8130525168864244e+02 0 0 0
1826 913 1 8.6347720968093870e+02 8.6245218761621368e+02 8.8883302717603715e+02 0 0 0
1314 657 1 8.6773820717768081e+02 8.6771160067872756e+02 8.8016003603233787e+02 0 0 0
144 72 1 8.5709745448867318e+02 8.5309303346368949e+02 8.7380196309218377e+02 0 0 0
196 98 1 8.6230108390351074e+02 8.6253910201579868e+02 8.7483603852977024e+02 0 0 0
1832 916 1 8.5966796145330750e+02 8.5909925024244069e+02 8.8601062210378018e+02 0 0 0
328 164 1 8.5408044026784034e+02 8.6440862936814028e+02 8.7988848003878672e+02 0 0 0
309 155 1 8.6033326463289040e+02 8.5684181497995075e+02 8.7383206030222959e+02 0 0 0
320 160 1 8.5686277652689307e+02 8.5705289209150806e+02 8.8225680308328685e+02 0 0 0
945 473 1 8.6660122545770946e+02 8.6230991815585628e+02 8.8277932313043686e+02 0 0 0
324 162 1 8.5466175847086618e+02 8.6056287211087454e+02 8.8119921850041908e+02 0 0 0
353 177 1 8.5923123862064881e+02 8.6314231292638135e+02 8.7678765179231948e+02 0 0 0
355 178 1 8.5973065588023485e+02 8.6338150153379536e+02 8.7913763016709936e+02 0 0 0
311 156 1 8.6132607881112494e+02 8.5494643854231663e+02 8.7511780044734178e+02 0 0 0
1830 915 1 8.5977980727593638e+02 8.6058066596121432e+02 8.8800851860164926e+02 0 0 0
880 440 1 8.5899751947376990e+02 8.6408125111306435e+02 8.9005575428192981e+02 0 0 0
1827 914 1 8.6251448610292141e+02 8.6131948335628294e+02 8.8825918820904781e+02 0 0 0
516 258 1 8.6178079998276542e+02 8.5983009807662791e+02 8.7806701940795142e+02 0 0 0
323 162 1 8.5495742060839484e+02 8.5908892284744491e+02 8.8137390846044400e+02 0 0 0
738 369 1 8.6460202596692886e+02 8.5713611580522888e+02 8.9102563163342734e+02 0 0 0
366 183 1 8.6308946847186371e+02 8.6828593599053136e+02 8.7877112533071988e+02 0 0 0
887 444 1 8.6507557721321189e+02 8.6896584175616795e+02 8.9427428932891485e+02 0 0 0